
Host: knut

Timers On : Fri Dec 16 17:58:41 2016
Timers Off: Fri Dec 16 17:58:42 2016

Wall Time:        1.00 seconds


***********************************************************

Host: knut

Timers On : Fri Dec 16 17:59:29 2016
Timers Off: Fri Dec 16 17:59:30 2016

Wall Time:        1.00 seconds


***********************************************************
